<?xml version="1.0" encoding="utf-8"?>
<VTKFile byte_order="LittleEndian" header_type="UInt64" type="PolyData" version="1.0">
   <PolyData>
      <Piece NumberOfLines="1" NumberOfPoints="55" NumberOfPolys="0" NumberOfStrips="0" NumberOfVerts="0">
         <CellData>
            <DataArray Name="cost" NumberOfComponents="1" RangeMax="37.9328" RangeMin="37.9328" type="Float32">37.9328</DataArray>
            <DataArray Name="score" NumberOfComponents="1" RangeMax="1" RangeMin="1" type="Float32">1</DataArray>
         </CellData>
         <Points>
            <DataArray Name="Points" NumberOfComponents="3" RangeMax="42.9175" RangeMin="4.395" type="Float32">21.25 26 42.9175 21.25 4.58246 21 21.3013 4.39504 21.1268 20.792 4.68085 21.6865 20.445 5.02022 21.9205 19.6216 5.49108 22.0363 18.7136 5.59206 21.6296 17.9675 6.20373 21.8925 17.2101 6.67097 22.3486 16.3866 7.22145 22.4857 15.6642 7.82389 22.8252 14.8564 8.33327 23.1219 14.0562 8.85566 23.4166 14.4039 9.78882 23.3251 14.9025 10.0821 24.1408 14.8684 10.3048 25.1151 15.3634 10.6492 25.9128 15.1738 10.8081 26.8817 15.2888 11.1272 27.8224 14.8464 11.7499 28.4679 14.2735 12.3357 29.0412 13.7561 12.876 29.7048 14.1147 13.2389 30.5648 13.6228 13.8213 31.2121 13.9681 14.1807 32.079 14.3202 14.5648 32.9326 14.2874 15.4442 33.4075 14.8617 15.6677 34.195 15.7453 15.3684 33.8348 16.6663 15.4882 33.4642 17.5043 16.0315 33.5145 18.2869 16.5945 33.2487 17.9559 17.3956 32.7501 18.3655 17.999 32.0658 19.0359 18.1741 31.3448 19.5375 19.0145 31.5499 19.4972 19.9381 31.1687 19.9726 20.4169 31.9068 19.8684 21.2628 32.4298 20.7252 21.4116 32.9236 20.6931 22.2405 33.482 21.1412 22.7508 34.216 21.9546 22.571 34.7693 21.957 22.7768 35.7478 22.0028 23.5415 36.3906 22.0265 24.3201 37.0177 22.447 24.8247 37.7717 22.2836 25.2775 38.6482 22.7248 25.7589 39.4056 22.7911 24.9896 40.041 22.101 24.9809 40.7646 22.5065 25.5356 41.4911 22.0735 26.0422 42.0106 22.0161 26.0295 42.6747 21.7631 25.9851 42.8946</DataArray>
         </Points>
         <Lines>
            <DataArray Name="connectivity" NumberOfComponents="1" RangeMax="54" RangeMin="0" type="Int32">1 2 3 4 5 6 7 8 9 10 11 12 13 14 15 16 17 18 19 20 21 22 23 24 25 26 27 28 29 30 31 32 33 34 35 36 37 38 39 40 41 42 43 44 45 46 47 48 49 50 51 52 53 54 0</DataArray>
            <DataArray Name="offsets" NumberOfComponents="1" RangeMax="55" RangeMin="55" type="Int32">55</DataArray>
         </Lines>
      </Piece>
   </PolyData>
</VTKFile>