<?xml version="1.0" encoding="utf-8"?>
<VTKFile byte_order="LittleEndian" header_type="UInt64" type="PolyData" version="1.0">
   <PolyData>
      <Piece NumberOfLines="1" NumberOfPoints="99" NumberOfPolys="0" NumberOfStrips="0" NumberOfVerts="0">
         <CellData>
            <DataArray Name="cost" NumberOfComponents="1" RangeMax="96.5784" RangeMin="96.5784" type="Float32">96.5784</DataArray>
            <DataArray Name="score" NumberOfComponents="1" RangeMax="1" RangeMin="1" type="Float32">1</DataArray>
         </CellData>
         <Points>
            <DataArray Name="Points" NumberOfComponents="3" RangeMax="47.4175" RangeMin="1" type="Float32">21.25 47.4175 21 1 1 1 1.17236 1.10058 1.11913 1.88364 1.54488 1.6462 2.03629 1.71603 1.91774 2.77717 2.19321 2.39039 3.2971 2.33254 3.23316 3.98901 2.72128 3.84155 4.70682 3.10616 4.42174 5.37485 3.67146 4.90565 6.08656 3.98463 5.53446 6.86168 4.29281 6.086 7.53814 4.58109 6.76372 8.24913 4.89376 7.39359 8.9582 5.25552 7.99885 9.64901 5.60444 8.63213 10.3511 5.9245 9.26818 11.0678 6.21957 9.90015 11.7609 6.55605 10.5376 11.8062 5.826 11.2195 11.9368 4.93904 11.6625 12.6525 5.21411 12.3045 13.3895 5.45114 12.9374 14.1389 5.65211 13.5683 14.8516 5.89337 14.227 15.5516 6.15445 14.8917 16.2433 6.45354 15.549 16.9654 6.70205 16.1946 17.6803 6.95843 16.8452 18.1935 7.28495 17.6389 18.8858 7.52865 18.3181 19.5681 7.75314 19.0139 20.279 7.97673 19.6807 19.8191 8.02832 20.5672 20.4705 8.27601 21.2844 21.1635 8.52833 21.9598 21.8433 8.79748 22.6419 21.1571 9.12323 23.2923 21.7906 9.40475 24.013 21.9494 10.2325 24.5513 22.5675 10.5297 25.279 22.6118 11.2456 25.9758 22.8056 12.0793 26.4928 23.6306 12.5168 26.8506 24.2461 12.835 27.5716 24.5217 13.6065 28.1451 25.1518 13.9573 28.8378 25.5234 14.696 29.4001 25.2357 14.9519 30.2566 25.7784 15.0841 31.0485 26.022 15.6753 31.8174 25.5572 16.4621 32.2235 25.8055 17.1709 32.8837 25.6979 18.1527 32.7275 25.1755 18.321 31.8916 24.6573 18.9677 31.3319 24.0275 19.6202 31.7533 24.1697 20.4129 32.3461 24.3126 21.3166 31.9426 24.4576 22.1669 32.4485 24.5903 22.9809 33.0141 24.3376 23.7848 33.5525 23.6461 24.4962 33.6778 23.7399 25.3234 34.2319 23.6643 26.2762 33.9378 23.7472 27.1339 34.4453 23.4194 27.8784 35.0269 23.4862 28.7193 35.564 23.3028 29.6739 35.7985 23.6414 30.1725 35.0005 23.7262 31.0391 35.4921 24.1295 31.8797 35.8538 24.4485 32.4033 35.0638 24.395 33.0699 34.3203 25.0114 33.8565 34.3555 24.6484 34.7599 34.1271 25.1241 35.5623 33.7667 25.4671 36.2481 33.1248 25.7005 36.9957 32.5031 25.1019 37.5206 31.898 24.6756 38.0441 31.1603 24.1171 37.5932 30.464 24.1537 37.9342 29.5246 24.3531 38.5525 28.7644 24.0091 39.484 28.6463 23.8831 40.0082 27.8041 24.3823 40.3124 26.9928 24.4808 40.9865 26.2607 23.5811 41.4188 26.321 23.0793 41.208 25.4821 23.1704 41.8779 24.7453 22.4045 42.181 24.1784 22.4726 42.8247 23.4161 22.496 43.4801 22.6612 21.7734 44.1691 22.7168 21.8139 44.8045 21.9457 21.5207 44.9807 21.006 20.8205 45.6946 20.9971 21.0211 46.6185 21.0322</DataArray>
         </Points>
         <Lines>
            <DataArray Name="connectivity" NumberOfComponents="1" RangeMax="98" RangeMin="0" type="Int32">1 2 3 4 5 6 7 8 9 10 11 12 13 14 15 16 17 18 19 20 21 22 23 24 25 26 27 28 29 30 31 32 33 34 35 36 37 38 39 40 41 42 43 44 45 46 47 48 49 50 51 52 53 54 55 56 57 58 59 60 61 62 63 64 65 66 67 68 69 70 71 72 73 74 75 76 77 78 79 80 81 82 83 84 85 86 87 88 89 90 91 92 93 94 95 96 97 98 0</DataArray>
            <DataArray Name="offsets" NumberOfComponents="1" RangeMax="99" RangeMin="99" type="Int32">99</DataArray>
         </Lines>
      </Piece>
   </PolyData>
</VTKFile>