<?xml version="1.0" encoding="utf-8"?>
<VTKFile byte_order="LittleEndian" header_type="UInt64" type="PolyData" version="1.0">
   <PolyData>
      <Piece NumberOfLines="1" NumberOfPoints="45" NumberOfPolys="0" NumberOfStrips="0" NumberOfVerts="0">
         <CellData>
            <DataArray Name="cost" NumberOfComponents="1" RangeMax="42.7455" RangeMin="42.7455" type="Float32">42.7455</DataArray>
            <DataArray Name="score" NumberOfComponents="1" RangeMax="1" RangeMin="1" type="Float32">1</DataArray>
         </CellData>
         <Points>
            <DataArray Name="Points" NumberOfComponents="3" RangeMax="47.4175" RangeMin="2.0825" type="Float32">2.08246 26 21 21.25 47.4175 21 20.997 47.356 20.8559 20.5316 46.5175 20.6639 20.1861 46.2059 20.5976 19.6032 45.4636 20.2671 19.3404 44.5965 19.844 18.9976 43.8091 19.3316 18.3153 43.1286 19.0645 17.629 42.5209 18.665 17.1711 41.7848 18.1665 16.7777 40.9539 17.7729 16.229 40.1966 17.4188 15.6938 39.431 17.062 15.1646 38.6817 16.6637 14.6776 37.8817 16.3132 14.2154 37.1264 15.8486 13.6862 36.368 15.4682 13.1354 35.6112 15.1163 13.3935 34.7225 15.4952 13.411 34.6098 16.4886 13.448 34.047 17.3144 13.2491 33.338 17.991 12.5963 32.7866 18.5103 13.1095 32.4014 19.2773 13.2977 31.4557 19.5422 13.287 30.9662 20.4141 12.8088 30.0884 20.3842 13.1466 29.157 20.2489 13.3659 28.1888 20.3694 12.7315 27.9142 21.092 12.5309 26.988 21.411 12.2362 26.1773 21.9169 11.5383 25.7193 22.4675 10.9679 25.1437 23.0535 10.1356 25.6012 23.3666 9.33323 25.6061 22.7698 8.5051 25.0477 22.7218 7.94326 25.0083 21.8955 6.96298 24.8124 21.8694 6.57834 25.4754 21.2272 5.76248 25.5591 20.655 4.87015 25.9329 20.9081 3.9712 25.5918 21.1829 3.0824 26.0088 20.9928</DataArray>
         </Points>
         <Lines>
            <DataArray Name="connectivity" NumberOfComponents="1" RangeMax="44" RangeMin="0" type="Int32">1 2 3 4 5 6 7 8 9 10 11 12 13 14 15 16 17 18 19 20 21 22 23 24 25 26 27 28 29 30 31 32 33 34 35 36 37 38 39 40 41 42 43 44 0</DataArray>
            <DataArray Name="offsets" NumberOfComponents="1" RangeMax="45" RangeMin="45" type="Int32">45</DataArray>
         </Lines>
      </Piece>
   </PolyData>
</VTKFile>