<?xml version="1.0" encoding="utf-8"?>
<VTKFile byte_order="LittleEndian" header_type="UInt64" type="PolyData" version="1.0">
   <PolyData>
      <Piece NumberOfLines="1" NumberOfPoints="49" NumberOfPolys="0" NumberOfStrips="0" NumberOfVerts="0">
         <CellData>
            <DataArray Name="cost" NumberOfComponents="1" RangeMax="46.7251" RangeMin="46.7251" type="Float32">46.7251</DataArray>
            <DataArray Name="score" NumberOfComponents="1" RangeMax="1" RangeMin="1" type="Float32">1</DataArray>
         </CellData>
         <Points>
            <DataArray Name="Points" NumberOfComponents="3" RangeMax="42.9175" RangeMin="4.5825" type="Float32">21.25 26 42.9175 21.25 4.58246 21 21.1436 4.59406 21 20.413 5.05943 21.1577 19.8175 5.49386 21.183 19.4973 6.39369 21.4794 19.0682 7.01257 22.1373 18.6029 7.66652 22.7338 18.0558 8.48086 22.9275 17.6092 9.31928 23.2399 18.2793 9.9838 23.5707 17.5326 10.5248 23.9577 17.1244 11.3299 24.3879 16.1911 11.3467 24.7466 15.6586 12.032 25.2434 15.0688 12.7034 25.6921 14.5648 13.4767 26.077 14.0562 14.2157 26.5187 13.518 14.9541 26.9249 12.997 15.7274 27.2865 12.4938 16.493 27.6872 11.9283 17.2237 28.0697 11.4406 17.9658 28.5294 10.9238 18.7066 28.9586 10.7021 19.4587 29.5792 10.9765 19.9737 30.3913 11.2419 20.4985 31.2001 11.8494 20.1339 31.9057 12.207 19.9647 32.8242 12.5182 20.4469 33.6431 12.6785 21.4272 33.7577 12.955 21.6956 34.6805 13.2357 22.1921 35.5019 13.5281 22.6678 36.3315 14.1111 23.1567 36.9804 14.5835 23.9289 36.5553 14.8075 24.8753 36.7877 15.2385 25.7773 36.8157 15.9877 26.3499 37.1485 16.9619 26.494 36.9749 17.833 26.8313 36.618 18.1729 27.3844 37.3786 18.8957 27.4096 38.0692 18.9447 26.5468 38.5724 19.6534 26.5933 39.2764 20.3118 26.5969 40.0291 20.2549 25.8772 40.721 20.6549 25.1182 41.2348 21.0373 25.5789 42.0358</DataArray>
         </Points>
         <Lines>
            <DataArray Name="connectivity" NumberOfComponents="1" RangeMax="48" RangeMin="0" type="Int32">1 2 3 4 5 6 7 8 9 10 11 12 13 14 15 16 17 18 19 20 21 22 23 24 25 26 27 28 29 30 31 32 33 34 35 36 37 38 39 40 41 42 43 44 45 46 47 48 0</DataArray>
            <DataArray Name="offsets" NumberOfComponents="1" RangeMax="49" RangeMin="49" type="Int32">49</DataArray>
         </Lines>
      </Piece>
   </PolyData>
</VTKFile>