<?xml version="1.0" encoding="utf-8"?>
<VTKFile byte_order="LittleEndian" header_type="UInt64" type="PolyData" version="1.0">
   <PolyData>
      <Piece NumberOfLines="1" NumberOfPoints="43" NumberOfPolys="0" NumberOfStrips="0" NumberOfVerts="0">
         <CellData>
            <DataArray Name="cost" NumberOfComponents="1" RangeMax="40.6217" RangeMin="40.6217" type="Float32">40.6217</DataArray>
            <DataArray Name="score" NumberOfComponents="1" RangeMax="1" RangeMin="1" type="Float32">1</DataArray>
         </CellData>
         <Points>
            <DataArray Name="Points" NumberOfComponents="3" RangeMax="42.9175" RangeMin="2.0825" type="Float32">2.08246 26 21 21.25 26 42.9175 21.0796 26.0714 42.8032 20.6373 26.4768 42.1742 20.3689 26.639 41.7405 19.6966 26.8386 41.0277 19.0999 27.2218 40.3227 18.3682 27.3183 39.6479 17.8411 27.5489 38.8299 17.2361 27.9071 38.1189 17.1586 27.0222 37.6594 16.5197 27.0708 36.8918 17.1479 27.5357 36.268 16.6573 27.8225 35.4451 17.1851 28.5045 34.9388 17.8242 28.3687 34.1818 17.3669 28.6035 33.324 17.0032 28.888 32.4371 16.0954 28.9741 32.8475 15.6039 29.6128 32.2556 15.1116 29.8148 31.4089 14.4967 29.0546 31.1994 13.6867 28.4717 31.1345 12.9879 27.7881 30.9241 13.4793 27.3007 30.2023 13.1847 26.8369 29.3668 12.6568 26.9021 28.52 13.1069 26.5565 27.6966 12.6614 26.6336 26.8046 11.7876 26.5906 26.3202 11.1469 26.4081 25.5745 10.6206 26.4234 24.7243 10.1547 26.4811 23.8414 10.1356 25.6012 23.3666 9.33323 25.6061 22.7698 8.5051 25.0477 22.7218 7.94326 25.0083 21.8955 6.96298 24.8124 21.8694 6.57834 25.4754 21.2272 5.76248 25.5591 20.655 4.87015 25.9329 20.9081 3.9712 25.5918 21.1829 3.0824 26.0088 20.9928</DataArray>
         </Points>
         <Lines>
            <DataArray Name="connectivity" NumberOfComponents="1" RangeMax="42" RangeMin="0" type="Int32">1 2 3 4 5 6 7 8 9 10 11 12 13 14 15 16 17 18 19 20 21 22 23 24 25 26 27 28 29 30 31 32 33 34 35 36 37 38 39 40 41 42 0</DataArray>
            <DataArray Name="offsets" NumberOfComponents="1" RangeMax="43" RangeMin="43" type="Int32">43</DataArray>
         </Lines>
      </Piece>
   </PolyData>
</VTKFile>