<?xml version="1.0" encoding="utf-8"?>
<VTKFile byte_order="LittleEndian" header_type="UInt64" type="PolyData" version="1.0">
   <PolyData>
      <Piece NumberOfLines="1" NumberOfPoints="55" NumberOfPolys="0" NumberOfStrips="0" NumberOfVerts="0">
         <CellData>
            <DataArray Name="cost" NumberOfComponents="1" RangeMax="52.6319" RangeMin="52.6319" type="Float32">52.6319</DataArray>
            <DataArray Name="score" NumberOfComponents="1" RangeMax="1" RangeMin="1" type="Float32">1</DataArray>
         </CellData>
         <Points>
            <DataArray Name="Points" NumberOfComponents="3" RangeMax="26" RangeMin="1" type="Float32">1 1 1 2.08246 26 21 2.30109 25.8151 20.9192 2.65822 25.827 20.6706 3.37931 25.7906 20.1349 4.37184 25.912 20.1219 5.35326 25.7203 20.1307 6.28892 25.3836 20.0249 6.97294 24.6615 19.9216 7.78926 24.2416 19.525 8.7293 24.0319 19.256 9.63814 23.7506 18.948 9.94866 24.1227 18.0733 10.4404 23.3587 17.6554 11.3029 23.1082 17.2157 11.6458 22.1688 17.217 12.5151 21.8293 16.8578 12.194 20.8891 16.7437 12.0565 19.9039 16.8456 12.2222 19.2238 16.1315 11.7471 18.4083 16.4621 11.4527 17.4647 16.3106 12.1814 16.8441 16.021 12.8022 16.063 16.089 13.489 15.4094 15.7713 13.5762 15.7931 14.852 14.2502 15.1853 14.432 14.9654 14.6114 14.0331 14.7882 13.6454 13.845 13.983 13.2073 13.4452 13.7598 12.2538 13.2427 13.5595 11.8528 12.3488 12.7305 11.382 12.0471 12.0696 11.8494 11.4601 11.2169 11.3972 11.1985 11.3566 10.7778 10.4259 10.6354 10.1336 10.1712 10.3573 9.21477 9.89129 9.43777 8.90311 10.1309 8.66614 8.3501 9.81662 7.83536 7.86292 9.54744 7.89347 7.46986 8.62976 7.16831 7.63679 7.96173 6.86617 6.73236 7.66054 6.17081 6.86343 6.95393 5.62773 6.2235 6.41029 4.75458 5.73685 6.43826 4.36715 5.30414 5.62422 3.9785 4.91556 4.78878 3.92663 4.48658 3.88696 3.83174 3.79677 3.16921 3.0826 3.46304 2.59701 2.71241 2.61426 2.21948 2.07271 2.04702 1.7008 1.63603 1.57521 1.30842</DataArray>
         </Points>
         <Lines>
            <DataArray Name="connectivity" NumberOfComponents="1" RangeMax="54" RangeMin="0" type="Int32">1 2 3 4 5 6 7 8 9 10 11 12 13 14 15 16 17 18 19 20 21 22 23 24 25 26 27 28 29 30 31 32 33 34 35 36 37 38 39 40 41 42 43 44 45 46 47 48 49 50 51 52 53 54 0</DataArray>
            <DataArray Name="offsets" NumberOfComponents="1" RangeMax="55" RangeMin="55" type="Int32">55</DataArray>
         </Lines>
      </Piece>
   </PolyData>
</VTKFile>