<?xml version="1.0" encoding="utf-8"?>
<VTKFile byte_order="LittleEndian" header_type="UInt64" type="PolyData" version="1.0">
   <PolyData>
      <Piece NumberOfLines="1861" NumberOfPoints="1862" NumberOfPolys="0" NumberOfStrips="0" NumberOfVerts="0">
         <PointData>
            <DataArray Name="cost" NumberOfComponents="1" RangeMax="16.4614" RangeMin="0" type="Float32">0 2 3.76658 5.29356 4.80044 6.51044 2.42543 2.80365 3.31127 2 7.33356 5.27887 6.3104 7.66845 8.6383 8.57842 4.0269 8.20989 9.0653 5.49131 1.32667 9.76526 5.53758 11.8097 11.0473 8.05909 13.1519 11.418 5.97939 7.90396 10.45 6.2538 2.81025 3.68963 9.4699 8.78706 11.2742 7.71756 4.10326 12.94 11.8579 5.60099 11.0376 8.86428 12.7678 11.5948 10.7433 10.0459 6.73635 12.145 11.3451 3.41134 12.7521 3.33064 10.7078 9.9521 8.19317 8.15619 12.044 8.87723 8.22626 13.0051 10.1133 2.47104 11.654 11.5175 8.05566 13.3885 12.0383 9.99267 3.31378 2.37884 12.4243 13.3773 13.233 5.35235 9.54875 9.41916 10.6157 4.96731 11.0361 9.01222 11.8278 12.902 13.3014 9.68806 11.9795 5.14799 10.646 6.33829 8.44203 10.4912 0.501229 6.32278 12.12 14.4918 10.6541 11.908 9.49412 10.2784 11.2841 6.95266 11.1134 5.2339 1.94378 2.99466 10.6797 4.45933 12.5535 11.842 11.2911 13.5226 2.13198 3.33925 9.97302 15.5395 9.56973 11.1545 9.30898 6.64019 2.09928 11.5694 13.2707 14.0914 12.4008 11.0577 2.98562 11.5909 7.89153 12.629 4.05195 3.16502 5.30407 5.54904 7.81944 3.97095 4.75076 12.5507 3.99453 9.47595 9.18493 3.22171 12.8491 7.04243 10.6848 5.19184 0.824376 12.1285 11.3999 10.5457 10.8171 14.2214 6.30258 11.0269 11.7237 3.77123 6.77943 10.566 4.22143 10.3225 12.5213 12.897 7.36474 5.32007 12.8929 9.64301 11.3024 11.5137 13.7605 11.9795 10.2504 13.9909 12.8004 7.97573 11.4384 7.83707 5.467 11.0265 13.7659 10.2361 9.99535 13.1547 9.09651 6.13071 12.1489 13.4826 4.60787 12.9307 13.8491 7.48198 13.4529 10.2991 9.01606 11.6755 8.2655 9.89714 13.5294 10.8894 11.4266 10.8138 11.5448 10.9827 11.5769 10.8214 12.803 10.6081 12.4255 12.207 3.44286 11.457 12.0658 9.72077 11.5026 10.5657 11.3433 11.8332 6.6165 12.5407 5.65517 9.44087 7.11022 9.28284 13.1924 5.36598 9.07745 12.8957 6.1343 3.49543 13.2486 10.9057 11.281 13.2725 10.5784 14.0874 4.52726 8.79783 6.00452 9.41341 8.03428 10.924 10.5287 9.0933 8.42423 12.5607 14.4868 10.021 9.32721 7.97747 9.64351 2.40202 4.27915 13.9973 5.89841 9.03213 9.7657 12.6887 11.3887 10.8368 11.3324 9.11474 12.5482 11.8331 8.84459 6.34701 6.99714 12.9506 6.91853 5.3011 10.0436 6.20475 10.7564 9.25835 11.493 11.0587 6.60016 5.17974 13.9405 14.0051 8.60099 3.29136 7.94961 10.9793 3.13797 13.9846 14.6101 10.9216 7.11236 11.4754 11.9952 9.57394 12.79 12.6621 11.9882 11.9453 12.4963 12.1594 1.30765 4.70628 11.632 10.4957 10.6146 14.1646 7.87308 9.95263 8.59057 13.868 11.6933 10.7396 8.86132 8.5493 10.9794 8.21414 12.3011 15.0202 10.9135 9.18768 11.0164 1.83174 13.4028 14.8901 10.7384 2.34236 8.46678 0.829702 14.4438 9.47361 11.5797 14.1331 9.5095 7.21467 12.0486 11.6215 11.3988 1.98742 11.2794 12.4166 12.7674 6.40103 11.8089 8.74676 4.03329 12.538 11.2309 7.42164 7.07174 5.82652 9.34103 12.0118 10.0653 5.66111 14.2958 12.9094 13.4354 3.86444 12.679 8.62851 12.0443 10.7103 9.89737 8.4489 12.7003 5.28765 9.27273 11.4894 10.9867 4.24595 10.2713 12.7874 6.82777 6.69418 9.74326 7.61934 11.9496 10.6578 13.9098 8.20039 10.2463 7.46567 6.57654 7.92427 13.1752 11.1129 12.9736 11.5581 5.29671 6.02791 11.0377 10.853 5.25995 12.8604 1.37662 12.1677 3.58863 11.062 8.91565 6.38696 8.10049 8.98564 11.7588 8.84385 14.4958 1.91365 9.76088 9.74196 9.65066 4.54774 8.86553 11.0794 2.78942 8.65487 12.5593 7.5716 8.23838 8.08354 2.44217 5.62118 13.6973 9.97107 6.7108 13.7779 12.1864 10.5518 7.47959 15.5551 9.8848 12.6078 6.21429 8.56892 8.8973 6.49537 6.69907 4.74188 9.87741 11.0737 12.2957 11.8095 2.65979 6.02133 15.1995 6.74337 5.23667 14.7198 4.13221 11.2907 8.08216 13.4313 7.31161 8.73542 11.2608 9.87528 4.17048 5.95264 8.98054 10.593 9.26218 7.58364 3.0175 12.2618 10.2392 14.4851 9.91982 9.16547 8.62523 12.9792 11.7441 11.7855 11.1743 10.9099 4.48849 9.60238 9.88247 6.21694 11.1881 10.1618 13.2025 12.665 9.3491 8.52397 13.5343 8.04645 13.0914 8.8618 12.0149 11.0917 13.4869 12.0172 5.36694 10.1037 2.57084 7.15225 1.87113 11.3939 12.9038 13.3843 8.64968 1.48024 13.2383 10.4889 11.8399 9.61644 9.86029 11.1446 7.38902 6.90004 14.3448 14.0987 9.711 7.22581 6.29102 10.5217 5.40684 7.0446 10.0644 10.1856 10.7462 12.6768 8.87608 13.7643 8.68035 14.0668 9.65873 7.45287 11.3591 10.7987 6.91685 11.9066 11.153 9.75022 11.4237 8.67548 5.18008 9.70169 6.9357 13.0777 7.48977 10.2684 10.1846 8.74935 10.0069 11.6614 7.85808 13.232 9.34371 12.2679 11.717 7.04825 11.4901 2.85976 10.5972 7.17958 11.7175 8.54756 8.13991 6.6087 11.894 9.99612 11.9339 9.17644 8.864 10.585 10.0958 11.0046 11.8664 11.9373 12.3957 1.44364 14.2004 4.67057 15.1232 6.28621 1.92657 12.1276 10.5129 9.67456 9.23959 11.1696 11.375 4.00689 8.14551 5.89767 1.31143 13.4034 11.2323 11.113 10.0383 11.5189 9.16629 12.3472 4.78729 9.76572 10.31 9.06261 11.0972 13.59 8.95342 2.50405 6.11613 3.10523 11.8865 6.86855 7.51665 10.8846 3.0687 12.4513 13.3754 12.9756 3.91831 5.64643 11.8856 8.6896 10.9838 10.2427 11.8092 10.9153 13.2128 1.38027 13.3676 6.69641 13.4806 3.14229 12.3304 11.7373 6.36626 7.35861 8.50366 12.696 8.96107 12.8279 11.5891 9.62818 12.7841 7.18824 10.3929 1.47245 12.7395 6.10687 8.70618 9.65841 12.096 12.3232 11.9652 4.45843 7.32974 14.0866 10.6349 8.51533 11.6826 10.5204 10.9717 14.526 10.783 9.03887 13.5605 8.0024 2.77023 12.5645 11.9578 9.73066 5.49753 10.4346 8.96908 12.4703 3.29075 3.94815 9.67824 8.5256 8.87119 12.6971 12.4307 10.3241 8.88326 5.4511 4.67065 10.6533 13.6293 8.42068 12.1477 2.87196 11.5088 0.398609 13.2419 9.92375 13.5373 9.08323 11.427 6.23286 12.3783 11.4028 9.6978 10.5527 7.37668 11.9306 11.8603 8.67494 14.6722 7.72006 10.1811 10.9616 10.8672 6.06203 10.1052 2.67931 10.6509 4.08255 2.2015 2.50017 12.7443 6.18106 14.524 8.75809 1.46379 15.0379 7.93277 12.7765 10.1427 12.6251 10.7674 12.688 11.2994 11.1895 11.1373 1.76246 8.89154 4.64805 11.2224 2.03906 10.231 10.7532 10.3627 6.55183 8.21444 11.0601 3.37783 8.84019 14.404 10.5536 9.79379 13.4117 10.3743 11.1548 13.8619 4.72819 4.89733 12.4247 8.83476 12.2996 13.4002 13.7827 11.2632 9.73273 1.61254 13.8864 10.2375 12.3481 7.42855 13.6855 11.4115 11.7061 0.205784 9.40849 9.76998 7.57073 6.66908 13.583 10.4085 8.11774 9.6686 5.88628 6.61597 10.3295 10.5889 8.495 6.54402 15.1316 8.30223 4.9938 7.07064 13.9553 12.272 10.046 13.3997 12.9748 3.83605 7.80842 11.9271 12.0479 15.2855 13.0063 9.06788 2.90802 10.7804 7.29645 10.5572 6.4305 10.9106 12.5413 14.2971 12.9467 8.20022 13.7854 8.91349 4.47721 11.4343 11.1002 2.98945 7.3827 13.2994 7.78016 12.2039 11.2153 10.8869 11.0978 6.77875 4.85885 8.02895 8.50511 9.98627 7.34527 11.7774 9.17965 12.8278 3.98912 5.10529 10.5487 13.9124 10.8877 5.20451 10.7462 3.5668 11.9677 7.04863 9.09321 13.467 11.6829 12.3334 7.93805 10.7755 11.9908 2.53961 10.2073 2.93419 13.3943 12.4665 2.94485 1.51608 5.50004 8.56947 4.95388 11.0951 8.27159 9.13928 5.7808 12.2884 13.5483 8.10894 12.607 10.927 1.32043 14.0507 5.72744 10.0297 13.5371 9.61515 9.57005 2.78943 14.306 3.3343 14.6597 14.7681 9.18704 11.458 5.40203 3.87443 7.46002 3.7582 11.7045 9.28034 11.5452 8.60746 6.67262 8.09799 8.99417 5.96743 11.9845 8.72332 2.57682 10.208 11.9124 9.76957 6.28371 3.01699 9.82297 11.7668 12.4772 8.36511 9.05553 13.4429 9.00085 9.30727 11.5273 8.22701 7.05235 4.07629 11.2322 10.6013 11.4139 11.9774 4.99013 10.3226 12.2127 8.47905 8.91047 9.02204 6.47065 5.38788 10.0143 5.65567 3.49047 14.2354 9.67045 8.63204 6.02705 2.93042 12.7981 11.8878 7.76492 10.2198 12.3416 8.42048 13.5273 14.886 13.5051 6.07706 13.0498 9.45874 3.2113 9.05383 9.31712 12.6469 13.8514 3.50663 5.25534 8.61534 1.36247 6.93522 2.30551 8.26324 5.82554 13.1921 9.7519 1.41857 11.2335 11.1198 5.5454 9.41939 14.0947 13.7738 12.559 4.45918 12.7418 3.64474 6.05143 13.0864 12.6781 6.27094 8.73368 5.4501 7.48205 8.49154 6.20332 1.49908 7.0055 11.0399 13.2665 8.32512 11.3333 6.79092 8.7748 9.24906 6.15623 9.95088 13.2173 11.4154 3.73683 8.09263 8.80957 11.7089 13.2516 11.5499 4.98226 8.12608 4.79335 10.9438 9.37653 13.2475 5.61946 10.1275 8.54997 10.762 7.10516 10.4924 4.46689 7.28708 13.0212 14.5184 8.65788 5.79382 4.34082 13.0732 12.5154 8.84865 9.32288 9.60455 14.5766 14.4547 12.9819 13.4563 4.81513 3.30885 9.94462 11.1813 11.9418 9.96331 14.5754 12.5689 7.98204 11.5721 12.5022 11.6583 8.16032 9.44471 6.79885 13.5271 11.8652 9.72397 12.1667 9.93939 12.9336 14.4127 11.4101 7.53087 9.33266 13.0949 9.2573 8.01116 4.49156 4.02259 10.7573 10.0579 9.26548 4.43802 12.1264 12.3471 14.8759 12.1067 9.34252 13.2599 10.5252 9.57883 10.5523 10.5795 7.56875 1.13108 12.7483 11.0878 10.1302 11.1134 4.28148 8.76784 3.58929 9.83231 11.1725 8.23479 9.08163 4.80523 9.11517 9.67568 12.1264 5.71638 8.91263 13.5825 12.1569 11.3398 9.57561 9.79566 5.50017 13.209 9.53871 5.38032 13.7177 10.0839 8.67242 3.66806 4.01763 6.77825 9.22962 13.2452 11.4431 1.11184 4.45963 13.2235 1.05872 7.18732 11.2447 2.01367 1.00802 12.6121 8.46644 12.0388 10.9266 10.9655 14.0358 8.97255 10.3112 11.688 14.2066 11.0638 10.3296 2.20778 15.274 13.3042 2.74777 5.83741 12.8662 10.0212 8.06139 12.506 8.08599 3.61252 16.4567 13.9379 4.39591 9.96869 12.0545 13.505 15.1156 10.941 11.8585 9.57069 12.0272 7.10901 12.5581 14.1975 12.4216 11.1909 12.5879 7.99632 9.19636 4.39908 12.659 11.312 11.1364 11.9984 13.752 10.4905 13.5194 13.9291 9.48279 14.134 11.9078 12.1485 5.00289 11.6114 13.4748 8.48728 13.2962 5.63056 6.27991 3.81866 10.0821 0.413166 12.0164 1.63259 9.63159 4.35638 9.83432 9.94182 11.419 9.10673 12.9909 14.6521 11.1528 11.1837 4.50636 11.5241 10.0303 13.0541 11.0238 10.8323 12.1939 9.4269 7.67598 8.21643 10.9113 3.74539 8.73667 7.16161 11.4997 11.8248 8.27298 10.6176 9.83156 10.8859 9.25814 13.4938 7.01229 11.1765 4.08468 4.1184 9.94399 9.36836 11.9069 7.35709 11.4155 5.50946 4.46932 6.36614 4.27986 8.55 13.0577 11.4813 7.38496 8.81116 10.4893 2.38966 11.8328 1.00416 12.653 10.1948 8.8176 7.89506 10.3667 8.44306 11.9917 9.61104 8.599 2.53789 3.0363 10.5189 5.59716 9.45488 1.66387 8.51783 13.6798 11.6984 10.0193 2.64958 4.13984 12.5268 7.87476 13.0659 9.86834 4.78735 13.4791 7.92867 15.8099 13.6586 12.9423 8.1391 11.3974 14.1282 11.0205 9.39419 8.78386 11.7816 10.324 13.3072 3.06185 12.3675 10.273 11.6328 6.6911 5.58866 10.0304 5.40735 8.98531 9.54883 12.349 5.5333 11.8956 9.63619 9.14844 3.57906 4.00071 12.6433 9.66395 13.251 4.47756 9.48683 4.07398 14.6914 11.0295 9.55199 13.4406 9.69419 10.3092 11.4618 11.6801 8.95138 8.21107 14.7426 11.9173 12.1818 12.0941 10.0534 5.5476 13.9868 10.2272 11.7004 11.1662 12.6558 6.31151 12.2381 3.94464 7.90525 9.41752 6.10103 9.9177 5.64389 11.1747 11.8782 10.5771 8.93471 9.845 6.16815 11.2311 12.6031 13.118 9.8737 12.3421 10.8448 7.14552 7.69125 11.741 9.99401 9.5848 10.2193 3.36841 11.1863 10.7796 9.35548 11.3087 1.65607 10.1769 7.94968 5.70561 8.18503 3.95094 7.14658 10.2859 8.17625 12.4558 11.2667 12.8261 9.62155 11.827 14.2524 3.96227 8.55268 1.47091 12.7916 7.14142 10.2381 9.50759 6.55722 12.8363 12.8758 13.9665 7.31767 13.6304 9.67607 6.79084 11.2591 8.78335 0.910741 7.90414 15.2052 13.1317 13.8814 6.6816 3.31742 4.22534 11.197 10.581 8.81685 9.94787 4.63181 9.50471 12.0089 7.62698 13.0644 3.51704 11.285 14.5356 8.11992 10.6032 4.97095 8.44609 5.88395 11.2891 11.0355 10.7995 13.0602 14.1553 13.8312 13.5235 13.2623 9.86254 13.5251 8.70565 10.393 5.42489 11.3806 12.6458 11.2961 11.6037 6.99477 12.4166 9.98154 12.1058 3.52357 7.86701 9.17722 9.43898 9.22876 11.7645 10.3351 13.4431 7.94031 14.1724 3.5956 9.72174 13.6115 9.29228 9.62859 4.4668 10.7735 13.0358 12.6089 12.9007 8.23074 5.85236 8.52106 14.3419 9.03424 7.89278 12.6797 8.5674 12.2755 5.85302 8.96802 8.57278 11.1308 12.2897 11.3206 8.71972 13.5184 11.5851 13.3754 11.1782 3.59683 13.7102 14.2685 7.63949 12.0935 12.216 10.6043 2.48531 14.5981 6.3032 12.4645 7.43963 14.9523 12.9624 11.7779 10.6689 7.07114 13.2375 13.2571 12.9533 11.2022 10.5653 13.0373 11.7642 2.72886 9.90417 12.0702 6.83066 10.2071 13.9047 3.7483 12.9022 12.0007 11.3958 12.1823 6.21743 4.33053 13.1654 9.21075 2.53861 10.3548 13.2456 8.10859 5.22925 10.0704 7.60622 14.0323 1.17117 10.8608 2.55933 8.58689 9.64291 7.51041 11.7919 7.89858 9.86345 1.86763 12.3439 7.90922 8.68939 6.26568 11.4445 10.546 9.13973 3.41738 12.341 13.8682 11.4356 11.1915 13.0514 13.3727 6.16171 10.723 9.45041 11.2385 6.1369 14.5845 13.4024 9.73664 9.21617 6.01204 10.5487 11.4784 11.2313 3.68054 6.80509 8.1897 3.92141 6.90254 7.67002 3.53899 9.39782 11.7009 8.91736 9.35547 4.68123 12.5127 10.6569 8.10187 6.7473 9.73645 3.28118 8.02963 4.21362 10.2808 8.93203 9.11197 5.86091 11.859 7.23886 14.2365 13.241 8.65613 8.47203 14.0783 10.314 9.82987 10.5093 11.0564 10.9072 4.13291 9.74989 9.4171 3.57183 7.81135 6.46539 3.62924 11.9622 10.6036 2.04929 12.5368 10.7599 6.07157 10.034 14.6521 6.28227 5.60455 4.47711 10.6854 5.04673 7.37409 7.25361 10.6665 15.1503 5.79408 8.92197 14.2225 12.0837 12.1181 10.6216 13.4122 10.6045 10.1326 9.00325 13.4086 13.421 6.00398 12.1541 8.32808 10.5669 8.49776 12.2722 16.4614 7.13972 10.0521 13.0424 9.67444 3.81594 8.9377 13.5868 13.6637 12.7392 13.9461 2.5581 12.4878 9.6911 9.90278 8.60524 14.694 2.77105 7.73493 3.2579 10.4083 14.4014 12.1732 9.59739 2.16696 13.4537 10.7295 8.18014 7.36534 4.73696 9.36889 12.0811 10.6521 12.9655 10.6286 12.6786 7.54495 5.35454 5.42772 9.94388 11.9218 10.2835 12.7605 13.1106 7.86616 10.1892 13.6618 15.6341 10.1053 5.40021 2.83899 8.66412 8.22294 8.54307 8.86915 7.57384 9.31473 9.96792 9.7829 12.6595 12.8279 11.4582 8.6948 7.804 14.2589 10.1043 11.8887 9.34621 13.9223 4.00497 11.8368 7.64343 8.69933 6.69669 13.2332 8.84842 14.5672 8.34467 8.535 10.3131 7.26895 13.3649 9.78147 4.75259 15.3054 8.94527 10.4335 11.4271 3.36305 13.7449 9.85136 9.14536 11.5477 8.68804 5.03859 3.96191 9.13531 7.70402 4.50187 9.43751 8.1653 6.91738 12.6834 10.6933 8.76617 10.779 8.35258 7.06863 11.3114 6.95317 3.5974 14.1019 12.0351 11.5166 11.4375 13.5385 14.0296 13.0634 7.72762 11.8814 10.512 8.55764 1.97896 12.2725 8.4386 11.206 14.8538 9.32095 2.20759 10.4672 4.57366 9.60081 6.61326 10.7317 12.7408 10.3214 12.6375 10.2591 9.49563 3.41363 11.9295 1.11531 10.431 4.88938 3.33948 14.7562 11.8043 6.68899 10.442 11.8995 9.28794 14.1538 11.4131 3.42041 7.9292 8.17766 4.6613 10.4854 2.3698 8.04973 10.2894 5.56809 8.84252 7.1516 1.61053 11.0777 10.505 8.71745 6.65159 8.8782 7.42897 13.0347 10.0618 12.6439 11.914 4.71162 12.8024 12.6597 7.48309 3.26196 2.27299 5.23846 12.3795 6.75663 6.4065 1.01301 1.12482 5.6707 10.2104 9.90647 5.4011 11.2989 2.08515 10.411 10.3817 13.0868 11.0081 14.2917 4.01569 2.66186 3.29323 4.69437 8.75816 12.6417 10.523 5.35324 0.994476 13.4464 8.88327 8.96651 10.2328 7.59046 6.2192 5.61188 9.75317 8.88185 13.2852 8.78064 12.2871 3.98635 9.25382 8.76921 9.87356 13.0556 12.637 11.6749 10.6932 7.38412 10.8803 11.5086 5.32139 12.7841 8.10464 9.90004 7.71712 4.33854 8.96432 4.44027 9.79149 9.92802</DataArray>
            <DataArray Name="index" NumberOfComponents="1" RangeMax="1861" RangeMin="0" type="Int32">0 1 2 3 4 5 6 7 8 9 10 11 12 13 14 15 16 17 18 19 20 21 22 23 24 25 26 27 28 29 30 31 32 33 34 35 36 37 38 39 40 41 42 43 44 45 46 47 48 49 50 51 52 53 54 55 56 57 58 59 60 61 62 63 64 65 66 67 68 69 70 71 72 73 74 75 76 77 78 79 80 81 82 83 84 85 86 87 88 89 90 91 92 93 94 95 96 97 98 99 100 101 102 103 104 105 106 107 108 109 110 111 112 113 114 115 116 117 118 119 120 121 122 123 124 125 126 127 128 129 130 131 132 133 134 135 136 137 138 139 140 141 142 143 144 145 146 147 148 149 150 151 152 153 154 155 156 157 158 159 160 161 162 163 164 165 166 167 168 169 170 171 172 173 174 175 176 177 178 179 180 181 182 183 184 185 186 187 188 189 190 191 192 193 194 195 196 197 198 199 200 201 202 203 204 205 206 207 208 209 210 211 212 213 214 215 216 217 218 219 220 221 222 223 224 225 226 227 228 229 230 231 232 233 234 235 236 237 238 239 240 241 242 243 244 245 246 247 248 249 250 251 252 253 254 255 256 257 258 259 260 261 262 263 264 265 266 267 268 269 270 271 272 273 274 275 276 277 278 279 280 281 282 283 284 285 286 287 288 289 290 291 292 293 294 295 296 297 298 299 300 301 302 303 304 305 306 307 308 309 310 311 312 313 314 315 316 317 318 319 320 321 322 323 324 325 326 327 328 329 330 331 332 333 334 335 336 337 338 339 340 341 342 343 344 345 346 347 348 349 350 351 352 353 354 355 356 357 358 359 360 361 362 363 364 365 366 367 368 369 370 371 372 373 374 375 376 377 378 379 380 381 382 383 384 385 386 387 388 389 390 391 392 393 394 395 396 397 398 399 400 401 402 403 404 405 406 407 408 409 410 411 412 413 414 415 416 417 418 419 420 421 422 423 424 425 426 427 428 429 430 431 432 433 434 435 436 437 438 439 440 441 442 443 444 445 446 447 448 449 450 451 452 453 454 455 456 457 458 459 460 461 462 463 464 465 466 467 468 469 470 471 472 473 474 475 476 477 478 479 480 481 482 483 484 485 486 487 488 489 490 491 492 493 494 495 496 497 498 499 500 501 502 503 504 505 506 507 508 509 510 511 512 513 514 515 516 517 518 519 520 521 522 523 524 525 526 527 528 529 530 531 532 533 534 535 536 537 538 539 540 541 542 543 544 545 546 547 548 549 550 551 552 553 554 555 556 557 558 559 560 561 562 563 564 565 566 567 568 569 570 571 572 573 574 575 576 577 578 579 580 581 582 583 584 585 586 587 588 589 590 591 592 593 594 595 596 597 598 599 600 601 602 603 604 605 606 607 608 609 610 611 612 613 614 615 616 617 618 619 620 621 622 623 624 625 626 627 628 629 630 631 632 633 634 635 636 637 638 639 640 641 642 643 644 645 646 647 648 649 650 651 652 653 654 655 656 657 658 659 660 661 662 663 664 665 666 667 668 669 670 671 672 673 674 675 676 677 678 679 680 681 682 683 684 685 686 687 688 689 690 691 692 693 694 695 696 697 698 699 700 701 702 703 704 705 706 707 708 709 710 711 712 713 714 715 716 717 718 719 720 721 722 723 724 725 726 727 728 729 730 731 732 733 734 735 736 737 738 739 740 741 742 743 744 745 746 747 748 749 750 751 752 753 754 755 756 757 758 759 760 761 762 763 764 765 766 767 768 769 770 771 772 773 774 775 776 777 778 779 780 781 782 783 784 785 786 787 788 789 790 791 792 793 794 795 796 797 798 799 800 801 802 803 804 805 806 807 808 809 810 811 812 813 814 815 816 817 818 819 820 821 822 823 824 825 826 827 828 829 830 831 832 833 834 835 836 837 838 839 840 841 842 843 844 845 846 847 848 849 850 851 852 853 854 855 856 857 858 859 860 861 862 863 864 865 866 867 868 869 870 871 872 873 874 875 876 877 878 879 880 881 882 883 884 885 886 887 888 889 890 891 892 893 894 895 896 897 898 899 900 901 902 903 904 905 906 907 908 909 910 911 912 913 914 915 916 917 918 919 920 921 922 923 924 925 926 927 928 929 930 931 932 933 934 935 936 937 938 939 940 941 942 943 944 945 946 947 948 949 950 951 952 953 954 955 956 957 958 959 960 961 962 963 964 965 966 967 968 969 970 971 972 973 974 975 976 977 978 979 980 981 982 983 984 985 986 987 988 989 990 991 992 993 994 995 996 997 998 999 1000 1001 1002 1003 1004 1005 1006 1007 1008 1009 1010 1011 1012 1013 1014 1015 1016 1017 1018 1019 1020 1021 1022 1023 1024 1025 1026 1027 1028 1029 1030 1031 1032 1033 1034 1035 1036 1037 1038 1039 1040 1041 1042 1043 1044 1045 1046 1047 1048 1049 1050 1051 1052 1053 1054 1055 1056 1057 1058 1059 1060 1061 1062 1063 1064 1065 1066 1067 1068 1069 1070 1071 1072 1073 1074 1075 1076 1077 1078 1079 1080 1081 1082 1083 1084 1085 1086 1087 1088 1089 1090 1091 1092 1093 1094 1095 1096 1097 1098 1099 1100 1101 1102 1103 1104 1105 1106 1107 1108 1109 1110 1111 1112 1113 1114 1115 1116 1117 1118 1119 1120 1121 1122 1123 1124 1125 1126 1127 1128 1129 1130 1131 1132 1133 1134 1135 1136 1137 1138 1139 1140 1141 1142 1143 1144 1145 1146 1147 1148 1149 1150 1151 1152 1153 1154 1155 1156 1157 1158 1159 1160 1161 1162 1163 1164 1165 1166 1167 1168 1169 1170 1171 1172 1173 1174 1175 1176 1177 1178 1179 1180 1181 1182 1183 1184 1185 1186 1187 1188 1189 1190 1191 1192 1193 1194 1195 1196 1197 1198 1199 1200 1201 1202 1203 1204 1205 1206 1207 1208 1209 1210 1211 1212 1213 1214 1215 1216 1217 1218 1219 1220 1221 1222 1223 1224 1225 1226 1227 1228 1229 1230 1231 1232 1233 1234 1235 1236 1237 1238 1239 1240 1241 1242 1243 1244 1245 1246 1247 1248 1249 1250 1251 1252 1253 1254 1255 1256 1257 1258 1259 1260 1261 1262 1263 1264 1265 1266 1267 1268 1269 1270 1271 1272 1273 1274 1275 1276 1277 1278 1279 1280 1281 1282 1283 1284 1285 1286 1287 1288 1289 1290 1291 1292 1293 1294 1295 1296 1297 1298 1299 1300 1301 1302 1303 1304 1305 1306 1307 1308 1309 1310 1311 1312 1313 1314 1315 1316 1317 1318 1319 1320 1321 1322 1323 1324 1325 1326 1327 1328 1329 1330 1331 1332 1333 1334 1335 1336 1337 1338 1339 1340 1341 1342 1343 1344 1345 1346 1347 1348 1349 1350 1351 1352 1353 1354 1355 1356 1357 1358 1359 1360 1361 1362 1363 1364 1365 1366 1367 1368 1369 1370 1371 1372 1373 1374 1375 1376 1377 1378 1379 1380 1381 1382 1383 1384 1385 1386 1387 1388 1389 1390 1391 1392 1393 1394 1395 1396 1397 1398 1399 1400 1401 1402 1403 1404 1405 1406 1407 1408 1409 1410 1411 1412 1413 1414 1415 1416 1417 1418 1419 1420 1421 1422 1423 1424 1425 1426 1427 1428 1429 1430 1431 1432 1433 1434 1435 1436 1437 1438 1439 1440 1441 1442 1443 1444 1445 1446 1447 1448 1449 1450 1451 1452 1453 1454 1455 1456 1457 1458 1459 1460 1461 1462 1463 1464 1465 1466 1467 1468 1469 1470 1471 1472 1473 1474 1475 1476 1477 1478 1479 1480 1481 1482 1483 1484 1485 1486 1487 1488 1489 1490 1491 1492 1493 1494 1495 1496 1497 1498 1499 1500 1501 1502 1503 1504 1505 1506 1507 1508 1509 1510 1511 1512 1513 1514 1515 1516 1517 1518 1519 1520 1521 1522 1523 1524 1525 1526 1527 1528 1529 1530 1531 1532 1533 1534 1535 1536 1537 1538 1539 1540 1541 1542 1543 1544 1545 1546 1547 1548 1549 1550 1551 1552 1553 1554 1555 1556 1557 1558 1559 1560 1561 1562 1563 1564 1565 1566 1567 1568 1569 1570 1571 1572 1573 1574 1575 1576 1577 1578 1579 1580 1581 1582 1583 1584 1585 1586 1587 1588 1589 1590 1591 1592 1593 1594 1595 1596 1597 1598 1599 1600 1601 1602 1603 1604 1605 1606 1607 1608 1609 1610 1611 1612 1613 1614 1615 1616 1617 1618 1619 1620 1621 1622 1623 1624 1625 1626 1627 1628 1629 1630 1631 1632 1633 1634 1635 1636 1637 1638 1639 1640 1641 1642 1643 1644 1645 1646 1647 1648 1649 1650 1651 1652 1653 1654 1655 1656 1657 1658 1659 1660 1661 1662 1663 1664 1665 1666 1667 1668 1669 1670 1671 1672 1673 1674 1675 1676 1677 1678 1679 1680 1681 1682 1683 1684 1685 1686 1687 1688 1689 1690 1691 1692 1693 1694 1695 1696 1697 1698 1699 1700 1701 1702 1703 1704 1705 1706 1707 1708 1709 1710 1711 1712 1713 1714 1715 1716 1717 1718 1719 1720 1721 1722 1723 1724 1725 1726 1727 1728 1729 1730 1731 1732 1733 1734 1735 1736 1737 1738 1739 1740 1741 1742 1743 1744 1745 1746 1747 1748 1749 1750 1751 1752 1753 1754 1755 1756 1757 1758 1759 1760 1761 1762 1763 1764 1765 1766 1767 1768 1769 1770 1771 1772 1773 1774 1775 1776 1777 1778 1779 1780 1781 1782 1783 1784 1785 1786 1787 1788 1789 1790 1791 1792 1793 1794 1795 1796 1797 1798 1799 1800 1801 1802 1803 1804 1805 1806 1807 1808 1809 1810 1811 1812 1813 1814 1815 1816 1817 1818 1819 1820 1821 1822 1823 1824 1825 1826 1827 1828 1829 1830 1831 1832 1833 1834 1835 1836 1837 1838 1839 1840 1841 1842 1843 1844 1845 1846 1847 1848 1849 1850 1851 1852 1853 1854 1855 1856 1857 1858 1859 1860 1861</DataArray>
         </PointData>
         <Points>